TITLE = "Exemple"
VARIABLES = "X","Y","Densité","Vitesse U","Vitesse V", "Pression","Énergie"
ZONE ZONETYPE=FEQUADRILATERAL NODES=72, ELEMENTS=64, FACES=136, NUMCONNECTEDBOUNDARYFACES=0, TOTALNUMBOUNDARYCONNECTIONS=0
DATAPACKING=BLOCK, VARLOCATION=([3-7]=CELLCENTERED)
-0.0117152
0.484231
0.988043
1.20416
0.988043
0.484231
-0.0117152
-0.48696
0.486936
1.46355
1.87349
1.46355
0.486936
-0.48696
-1.59552
0.4875
2.57214
3.4407
2.57214
0.4875
-1.59552
-4.05727
0.487616
5.03386
6.92188
5.03386
0.487616
-4.05727
-9.47042
0.487641
10.4469
14.5769
10.4469
0.487641
-9.47042
-21.3493
0.487646
22.3257
31.3753
22.3257
0.487646
-21.3493
-47.4059
0.487647
48.3819
68.2231
48.3819
0.487647
-47.4059
0.140734
0.471604
0.832879
1.00893
0.832879
0.471604
0.140734
1.93586e-17
-0.225011
-0.900109
-2.46849
-5.94984
-13.6047
-30.4028
-67.2497
-148.067
-104.557
0.487647
105.532
149.043
105.532
0.487647
-104.557
0.361484
0.503144
0.356239
0
-0.356239
-0.503144
-0.361484
0.910997
1.28364
0.910968
0
-0.910968
-1.28364
-0.910997
2.05401
2.90094
2.05506
0
-2.05506
-2.90094
-2.05401
4.53159
6.40503
4.53283
0
-4.53283
-6.40503
-4.53159
9.95199
14.0709
9.9532
0
-9.9532
-14.0709
-9.95199
21.8342
30.8752
21.8352
0
-21.8352
-30.8752
-21.8342
47.8922
67.7278
47.893
0
-47.893
-67.7278
-47.8922
0.0524622
0.0546415
0.0225172
0
-0.0225172
-0.0546415
-0.0524622
0
0
0
0
0
0
0
0
0
-105.044
-148.554
-105.044
0
105.044
148.554
105.044
0.592017
1.41431
0.985603
0.567069
1.20672
0.428705
0.900346
1.00004
0.521662
1.11188
0.86377
1.15951
0.973411
1.1658
1.03616
0.784162
0.673593
1.11613
0.986744
0.791454
1.09
0.868361
0.950022
1.03091
0.348547
1.14634
0.834461
1.19277
0.911101
1.13659
1.05458
0.727683
0.700052
1.108
0.993374
0.795065
1.09034
0.862334
0.935876
0.992961
0.442003
1.10948
0.826683
1.19008
0.9238
1.14045
1.06661
0.757883
0.641959
1.12711
1.00885
0.802719
1.08894
0.870495
0.94713
1.02692
0.311697
1.1249
0.835826
1.20043
0.908927
1.12562
1.05794
0.719627
0.147014
1.74654
1.96007
2.00411
1.7986
1.2202
1.4959
1.77231
1.63613
1.92136
1.70305
1.7018
1.71172
1.8342
1.76347
1.90481
0.897988
1.80241
1.8253
1.75464
1.68497
1.70164
1.863
1.75353
1.77852
1.66065
1.88217
1.82587
1.81638
1.70177
1.86546
1.91857
1.14406
1.78591
1.85437
1.82887
1.77218
1.67269
1.68566
1.7987
1.82319
1.87967
1.68255
1.70361
1.72489
1.85899
1.76633
1.91136
1.16313
1.79573
1.81661
1.70309
1.67034
1.70722
1.85663
1.75783
1.66393
1.68099
1.85316
1.82868
1.82869
1.71272
1.86941
1.92089
0.36436
0.301285
0.204709
0.00201401
-0.293062
-0.630528
0.0752862
0.0929017
0.665584
0.00238453
0.0759762
0.0703238
0.228061
0.0925845
0.00528466
0.22349
0.177626
0.168723
0.0535215
-0.00745037
0.0432765
0.225434
0.0888155
0.136379
-0.89215
0.173316
0.138716
0.111943
-0.02688
0.165378
0.0473784
0.258455
0.388522
0.123641
0.132153
0.0823172
-0.0112627
-0.0178919
0.0978985
0.0295017
0.920426
0.0329711
0.0124699
0.0627839
0.205417
0.0984729
-0.00416793
0.245078
0.334942
0.16174
0.0566047
-0.0388007
0.0483734
0.216472
0.088412
0.161643
-1.00323
0.161826
0.187181
0.12281
-0.0329209
0.167306
0.0548841
0.267977
3.50933
4.26325
4.06005
3.17329
4.25175
2.85586
3.97436
4.07503
3.60069
4.13654
3.89787
4.21523
4.05038
4.21722
4.11172
3.85636
3.75616
4.17237
4.06577
3.80669
4.16373
3.93616
4.0267
4.10566
1.96079
4.21299
3.87906
4.24119
3.97307
4.17008
4.12413
3.69276
3.68168
4.10731
4.06799
3.79998
4.1677
3.91984
4.00998
4.06856
3.00253
4.16638
3.8458
4.2237
3.9959
4.20081
4.13695
3.84202
3.96329
4.17313
4.0679
3.79671
4.16117
3.95067
4.02652
4.10291
1.63395
4.19746
3.89359
4.24258
3.96569
4.15573
4.12839
3.68713
0.812757
1.5233
0.835068
0.264268
1.2508
0.327983
1.02735
1.00011
0.425828
1.0188
0.844696
1.28227
0.996534
1.18016
1.0597
0.632736
0.899164
1.13122
0.946675
0.717782
1.19605
0.855495
0.869222
1.05521
-0.00261345
1.29266
0.70033
1.22522
0.84663
1.23134
1.00524
0.529433
0.826557
1.11019
0.929765
0.675554
1.1328
0.869487
0.967493
0.973282
0.162115
1.06477
0.803611
1.31889
0.919064
1.12587
1.09945
0.601863
0.829606
1.14863
0.975064
0.753175
1.20436
0.86003
0.87101
1.04535
-0.0316205
1.24707
0.72181
1.23068
0.833703
1.20443
1.00696
0.519949
57	50	1	58	
50	51	2	1	
51	52	3	2	
52	53	4	3	
53	54	5	4	
54	55	6	5	
55	56	7	6	
56	57	58	7	
58	1	8	59	
1	2	9	8	
2	3	10	9	
3	4	11	10	
4	5	12	11	
5	6	13	12	
6	7	14	13	
7	58	59	14	
59	8	15	60	
8	9	16	15	
9	10	17	16	
10	11	18	17	
11	12	19	18	
12	13	20	19	
13	14	21	20	
14	59	60	21	
60	15	22	61	
15	16	23	22	
16	17	24	23	
17	18	25	24	
18	19	26	25	
19	20	27	26	
20	21	28	27	
21	60	61	28	
61	22	29	62	
22	23	30	29	
23	24	31	30	
24	25	32	31	
25	26	33	32	
26	27	34	33	
27	28	35	34	
28	61	62	35	
62	29	36	63	
29	30	37	36	
30	31	38	37	
31	32	39	38	
32	33	40	39	
33	34	41	40	
34	35	42	41	
35	62	63	42	
63	36	43	64	
36	37	44	43	
37	38	45	44	
38	39	46	45	
39	40	47	46	
40	41	48	47	
41	42	49	48	
42	63	64	49	
64	43	72	65	
43	44	71	72	
44	45	70	71	
45	46	69	70	
46	47	68	69	
47	48	67	68	
48	49	66	67	
49	64	65	66	
